<?xml version="1.0"?>
<VTKFile type="PolyData" version="0.1" byte_order="LittleEndian" compressor="vtkZLibDataCompressor">
	<PolyData>
		<Piece NumberOfPoints="456" NumberOfVerts="0" NumberOfLines="0" NumberOfStrips="0" NumberOfPolys="908">
		<PointData Normals="Normals">
		<DataArray type="Float32" Name="Normals" NumberOfComponents="3" format="ascii">
			 0.001802  0.770265 -0.637722
			 0.080536  0.341305 -0.936496
			-0.261491  0.594688 -0.760242
			 0.294673  0.734484 -0.611311
			-0.021499  0.850627 -0.525330
			 0.345921  0.819241 -0.457365
			-0.363485  0.290920 -0.885011
			-0.281156  0.020009 -0.959454
			-0.049834 -0.126800 -0.990676
			 0.294208  0.012871 -0.955655
			 0.503436  0.221009 -0.835288
			 0.485169  0.482857 -0.729013
			-0.345770  0.791739 -0.503580
			-0.589916  0.520509 -0.617308
			 0.661767  0.557970 -0.500733
			-0.060030  0.949096 -0.309212
			 0.286543  0.909996 -0.299666
			 0.603183  0.752306 -0.264964
			-0.626172  0.086950 -0.774822
			-0.393325 -0.236702 -0.888407
			-0.019136 -0.320673 -0.946997
			 0.384727 -0.209864 -0.898856
			 0.600386 -0.073036 -0.796368
			 0.740571  0.202020 -0.640892
			-0.390880  0.848657 -0.356363
			-0.641616  0.662844 -0.385962
			-0.807183  0.285337 -0.516758
			 0.843082  0.448514 -0.296730
			-0.178313  0.981457 -0.070327
			 0.129993  0.990705 -0.040078
			 0.407588  0.913118 -0.009411
			 0.686181  0.726973  0.025805
			-0.692318 -0.167745 -0.701824
			-0.374273 -0.430478 -0.821345
			 0.018275 -0.517214 -0.855661
			 0.451235 -0.446506 -0.772670
			 0.741746 -0.213542 -0.635777
			 0.881678  0.085763 -0.463992
			-0.480568  0.867476 -0.128603
			-0.752529  0.622662 -0.214456
			-0.917293  0.266887 -0.295541
			-0.877500 -0.126968 -0.462464
			 0.983050  0.084345 -0.162783
			 0.897923  0.438573  0.037247
			-0.493977  0.854538  0.160471
			-0.194235  0.959109  0.205868
			 0.093216  0.965056  0.244904
			 0.401454  0.864656  0.302002
			 0.700688  0.623031  0.347662
			-0.634975 -0.473762 -0.610210
			-0.275622 -0.644378 -0.713308
			 0.179437 -0.686019 -0.705110
			 0.587405 -0.562527 -0.581824
			 0.862532 -0.269802 -0.428071
			-0.782310  0.619270  0.067043
			-0.969261  0.243692 -0.033870
			-0.961837 -0.196754 -0.190150
			-0.724241 -0.498459 -0.476459
			 0.992782 -0.104265  0.059262
			 0.921349  0.265987  0.283490
			-0.497417  0.792744  0.352326
			-0.804969  0.552242  0.216918
			-0.187639  0.881658  0.432979
			 0.124675  0.847234  0.516382
			 0.422327  0.684092  0.594692
			 0.658318  0.411783  0.630121
			-0.341981 -0.745995 -0.571437
			 0.156828 -0.773496 -0.614092
			 0.566156 -0.711792 -0.415715
			 0.864394 -0.466003 -0.188852
			-0.976730  0.213611  0.019218
			-0.968529 -0.219517 -0.117318
			-0.739264 -0.618277 -0.266876
			-0.327919 -0.831465 -0.448482
			 0.911563 -0.270542  0.309613
			 0.855486  0.077182  0.512041
			-0.327510  0.722976  0.608312
			-0.648468  0.568321  0.506460
			-0.857704  0.289576  0.424841
			-0.064896  0.716154  0.694919
			 0.224291  0.584408  0.779847
			 0.429830  0.345194  0.834318
			 0.597854  0.009791  0.801545
			 0.101313 -0.868247 -0.485678
			 0.621683 -0.703553 -0.344272
			 0.823470 -0.566855 -0.023919
			-0.982313  0.013515  0.186759
			-0.858319 -0.502964  0.101563
			-0.529784 -0.848132  0.000860
			-0.287800 -0.952777 -0.096886
			 0.706708 -0.609876  0.358630
			 0.725456 -0.309117  0.614947
			-0.574177  0.356622  0.736981
			-0.330886  0.300884  0.894418
			-0.756459  0.131916  0.640599
			-0.880762 -0.226682  0.415780
			-0.179531  0.242025  0.953516
			 0.145543  0.213665  0.966004
			 0.434603 -0.012704  0.900533
			 0.578957 -0.346069  0.738272
			-0.147174 -0.982971 -0.110037
			 0.135287 -0.989377 -0.053198
			 0.461124 -0.885561  0.056096
			-0.723015 -0.690752  0.010505
			-0.374884 -0.911240 -0.170597
			-0.192345 -0.976353 -0.098681
			 0.487159 -0.738418  0.466278
			-0.663087  0.202080  0.720749
			-0.421341  0.361998  0.831522
			-0.947664 -0.069673  0.311575
			-0.896955 -0.401038 -0.186122
			-0.091893  0.464532  0.880776
			 0.490090  0.209878  0.846028
			 0.817550 -0.189365  0.543831
			 0.057652 -0.997899 -0.029576
			 0.277703 -0.944416  0.175954
			-0.430022 -0.655687 -0.620609
			 0.149734 -0.840468 -0.520761
			 0.805859 -0.513081  0.295533
			-0.720678  0.643725  0.257376
			-0.969378  0.234888  0.071655
			-0.043201  0.926581  0.373606
			-0.961265 -0.056251 -0.269825
			-0.700259 -0.195003 -0.686739
			 0.572210  0.719875  0.392881
			 0.961667  0.193115  0.194685
			 0.974209 -0.193007  0.116898
			 0.654379 -0.743833 -0.136018
			 0.000231 -0.451309 -0.892368
			 0.628216 -0.481259 -0.611338
			 0.949493 -0.305467 -0.071780
			-0.145851  0.987155 -0.065211
			-0.728869  0.673207 -0.124668
			-0.951319  0.295108 -0.088898
			-0.961381  0.179371 -0.208742
			 0.519013  0.854664  0.013260
			-0.835227  0.069999 -0.545432
			-0.404560 -0.090469 -0.910025
			 0.870007  0.487822  0.071541
			 0.975375 -0.121857  0.183832
			 0.982112 -0.169571  0.081867
			 0.945732 -0.284516  0.156977
			 0.439865 -0.374278 -0.816354
			 0.874965 -0.264979 -0.405243
			-0.060893  0.949572 -0.307580
			 0.537617  0.841090 -0.059459
			-0.380183  0.515798 -0.767732
			-0.730638  0.302884 -0.611906
			-0.632632  0.548764 -0.546475
			-0.776521  0.314961 -0.545724
			 0.806706  0.528515  0.264381
			-0.763865  0.243333 -0.597746
			-0.255549  0.193753 -0.947182
			 0.912706 -0.033668  0.407228
			 0.946079 -0.197739  0.256581
			 0.921488 -0.250648  0.296708
			 0.860115 -0.175777 -0.478858
			 0.990518 -0.073659  0.115971
			 0.547978 -0.281675 -0.787641
			 0.164688  0.905633 -0.390778
			 0.432818  0.876742  0.209741
			 0.756380  0.345204  0.555629
			 0.428279  0.337594 -0.838217
			 0.196508 -0.127384 -0.972193
			 0.142483  0.327131 -0.934175
			-0.264765  0.414281 -0.870787
			-0.647359  0.318294 -0.692542
			 0.855553 -0.054539  0.514835
			-0.539535  0.551969 -0.635792
			-0.467636  0.645749 -0.603593
			 0.196620  0.296361 -0.934618
			 0.946419 -0.090577  0.309978
			 0.894906 -0.176264  0.409970
			 0.913786 -0.171753  0.368098
			 0.933599 -0.126200  0.335361
			 0.613672 -0.244079 -0.750888
			 0.521684 -0.163010 -0.837421
			 0.926475 -0.009818 -0.376229
			 0.237521  0.955442  0.175256
			 0.418938  0.358342  0.834315
			 0.664550  0.023498  0.746874
			 0.137739  0.899362 -0.414942
			 0.072919  0.129094 -0.988948
			-0.194807  0.103127 -0.975405
			-0.550872  0.087722 -0.829967
			-0.719332  0.067204 -0.691408
			-0.836378  0.378026 -0.396949
			 0.875704 -0.240341  0.418783
			 0.835206 -0.096955  0.541323
			-0.621842  0.558521 -0.548969
			-0.222881  0.249142 -0.942471
			 0.627229 -0.204259 -0.751573
			 0.982376  0.135850  0.128386
			 0.911286  0.040918  0.409737
			 0.860480 -0.099890  0.499596
			 0.985605 -0.003056 -0.169039
			 0.543883 -0.314258 -0.778096
			 0.345102 -0.140170 -0.928039
			 0.557485 -0.000953 -0.830186
			-0.016684  0.672416  0.739985
			-0.346658  0.904563  0.248179
			 0.250623  0.241522  0.937473
			 0.582226  0.190640  0.790361
			-0.794510  0.576462 -0.190905
			-0.878558  0.016084 -0.477366
			-0.938318 -0.037333 -0.343752
			-0.929345 -0.219192 -0.297106
			-0.961480 -0.230717 -0.149418
			-0.997214  0.021301 -0.071484
			 0.640973 -0.349335  0.683461
			 0.741145 -0.158922  0.652264
			-0.689605 -0.208449 -0.693537
			 0.296046 -0.488756 -0.820655
			 0.552984 -0.436744 -0.709551
			 0.980419  0.168221  0.102373
			 0.894099  0.157254  0.419354
			 0.728210 -0.018430  0.685106
			 0.862087  0.069851 -0.501923
			 0.202459 -0.264249 -0.942965
			 0.412245 -0.058501 -0.909193
			-0.082868  0.428138  0.899906
			-0.522019  0.567756  0.636514
			-0.871786  0.364987  0.326761
			 0.251348  0.206846  0.945536
			-0.990566  0.077776  0.112823
			-0.966066 -0.076525  0.246699
			-0.913221 -0.267192  0.307630
			-0.927941 -0.355117  0.113215
			-0.933521 -0.313732  0.173524
			-0.932024 -0.354171 -0.076771
			-0.900257 -0.433552 -0.039627
			 0.259064 -0.403444  0.877564
			 0.337104 -0.336443  0.879299
			-0.330357 -0.773500 -0.540890
			 0.121825 -0.699179 -0.704490
			 0.951214  0.176415  0.253119
			 0.904180  0.142975 -0.402512
			 0.780418  0.071036  0.621210
			 0.223175 -0.129637  0.966120
			 0.596928  0.005425  0.802276
			 0.387810 -0.031418 -0.921204
			-0.144283 -0.309167 -0.939999
			-0.322818  0.186343  0.927936
			-0.677547  0.146675  0.720706
			-0.829877  0.053923  0.555335
			-0.164727 -0.298401  0.940118
			-0.817085 -0.207138  0.538020
			-0.869764 -0.437579  0.228113
			-0.749019 -0.307494  0.586871
			-0.679926 -0.330564  0.654544
			-0.618373 -0.740612 -0.262885
			-0.907803 -0.417885 -0.035583
			-0.216310 -0.386230  0.896681
			 0.893157  0.168960  0.416801
			 0.896556  0.210096 -0.389932
			 0.361847  0.081016 -0.928710
			-0.340820 -0.213472  0.915572
			 0.020722 -0.098689  0.994903
			 0.561636  0.058371  0.825322
			-0.408990 -0.147235 -0.900583
			-0.672134 -0.354247 -0.650189
			-0.531189 -0.213584  0.819890
			-0.631357 -0.285644  0.720969
			-0.896757 -0.245071 -0.368466
			-0.822669 -0.253891  0.508680
			 0.766772  0.149214  0.624336
			 0.958777  0.206553 -0.195145
			 0.107671  0.067321 -0.991905
			-0.102720 -0.084595  0.991107
			 0.037034 -0.060121  0.997504
			-0.827573 -0.182006 -0.531033
			-0.866966 -0.260179  0.425061
			 0.663038  0.081306  0.744157
			 0.980104  0.190551 -0.055562
			 0.200263  0.114725 -0.973002
			-0.813169 -0.112362 -0.571079
			-0.165647 -0.149629  0.974768
			-0.917077 -0.251846  0.309100
			 0.651453  0.008028  0.758647
			 0.985762  0.132194 -0.103915
			 0.230590  0.099625 -0.967938
			-0.831552 -0.070904 -0.550902
			-0.947629 -0.181463  0.262811
			-0.293201 -0.156677  0.943125
			 0.674489 -0.015846  0.738115
			 0.960117  0.122492 -0.251338
			 0.103919  0.126513 -0.986507
			-0.858622 -0.011463 -0.512481
			-0.943966 -0.126919  0.304663
			-0.323975 -0.142214  0.935316
			 0.694622 -0.041640  0.718168
			 0.964716  0.094431 -0.245777
			 0.133284  0.126939 -0.982915
			-0.847722  0.019813 -0.530071
			-0.930009 -0.088763  0.356659
			-0.273328 -0.143887  0.951098
			 0.568713 -0.092715  0.817294
			 0.989318  0.037496 -0.140871
			 0.203006  0.148306 -0.967881
			-0.786299  0.078151 -0.612884
			-0.952218 -0.018988  0.304829
			-0.307225 -0.101487  0.946210
			 0.029685 -0.087777  0.995698
			 0.813884 -0.065576  0.577315
			 0.970754  0.016702 -0.239496
			 0.323498  0.148454 -0.934511
			-0.620309  0.120937 -0.774978
			-0.987900  0.047387 -0.147672
			-0.693128 -0.033588  0.720032
			-0.079809 -0.053645  0.995366
			 0.730497 -0.080354  0.678172
			 0.991238 -0.011776 -0.131564
			 0.440450  0.163378 -0.882786
			-0.638088  0.191800 -0.745692
			-0.957516  0.088180 -0.274568
			-0.826526  0.046376  0.560984
			-0.105123  0.088624  0.990502
			 0.668166  0.003549  0.744004
			 0.984896 -0.031217 -0.170307
			 0.655447  0.165326 -0.736924
			-0.526182  0.384298 -0.758583
			-0.962664  0.168434 -0.211916
			-0.940786  0.193792  0.278150
			-0.603696  0.536008  0.590124
			 0.197926  0.241797  0.949926
			 0.874792  0.244276  0.418412
			 0.965569  0.140500 -0.218945
			 0.800542  0.161667 -0.577059
			-0.029579  0.540891 -0.840572
			-0.906211  0.367711 -0.208734
			-0.926382  0.355536 -0.124140
			-0.432913  0.790988  0.432347
			 0.128323  0.407512  0.904139
			-0.632234  0.738795 -0.233372
			 0.412952  0.199877  0.888549
			 0.819577  0.179284  0.544197
			 0.980842  0.104924 -0.164133
			 0.979576  0.142384 -0.141977
			 0.822034  0.302923 -0.482180
			 0.720475  0.424904 -0.548063
			 0.142688  0.695410 -0.704305
			-0.852438  0.514110 -0.095083
			-0.798028  0.599380 -0.062415
			-0.763295  0.632872 -0.129823
			-0.393313  0.684931  0.613331
			-0.517511  0.807998 -0.281642
			 0.042985  0.344261  0.937890
			 0.319129  0.040561  0.946843
			-0.641808  0.600348 -0.477143
			 0.417315 -0.050677  0.907348
			 0.909884 -0.132893  0.393002
			 0.919299 -0.317031 -0.233198
			 0.955967 -0.275303  0.101667
			 0.996729  0.066583 -0.045813
			 0.824255  0.191117 -0.532990
			 0.734795  0.230154 -0.638048
			 0.704022  0.016597 -0.709985
			 0.363191  0.150699 -0.919447
			-0.255564  0.696544 -0.670458
			-0.608865  0.776567 -0.161949
			-0.586503  0.798479  0.135814
			-0.874673  0.483055 -0.040062
			-0.680934  0.522324  0.513329
			-0.361709  0.129398  0.923267
			-0.779029  0.626735  0.017786
			-0.561192  0.200691 -0.802986
			-0.715720  0.437285 -0.544543
			-0.058361 -0.212455  0.975427
			 0.229220 -0.276080  0.933402
			-0.955854 -0.238729 -0.171322
			 0.267904 -0.217028  0.938683
			 0.405175 -0.183231  0.895689
			 0.824168 -0.528380  0.203867
			 0.736000 -0.619969 -0.271924
			 0.732861 -0.656691  0.177967
			 0.748786 -0.379931  0.543113
			 0.963385 -0.202814 -0.175372
			 0.784645 -0.022985 -0.619519
			 0.763106  0.031070 -0.645527
			 0.610860 -0.202051 -0.765523
			 0.256043 -0.121217 -0.959035
			-0.274930  0.194311 -0.941624
			-0.464580  0.744362 -0.479677
			-0.257614  0.962470 -0.085358
			-0.304962  0.869490  0.388569
			-0.637838  0.389982  0.664137
			-0.974788  0.213043  0.066334
			-0.674651  0.042659  0.736903
			-0.309275 -0.139096  0.940745
			-0.917624  0.039633 -0.395469
			-0.514602 -0.249746 -0.820251
			-0.541898 -0.151019 -0.826764
			-0.086289 -0.157910  0.983676
			 0.149837 -0.219660  0.964001
			-0.563968 -0.074166  0.822459
			-0.911206 -0.401939  0.090271
			 0.236271 -0.242893  0.940840
			 0.429267 -0.672291  0.603120
			 0.488615 -0.860537 -0.143988
			 0.364479 -0.906345 -0.213761
			 0.315225 -0.835102  0.450819
			 0.667571 -0.696629  0.262787
			 0.748279 -0.099234 -0.655921
			 0.682002 -0.136847 -0.718433
			 0.525115 -0.270636 -0.806852
			 0.242453 -0.255318 -0.935964
			-0.180093 -0.022591 -0.983390
			-0.695472  0.160330 -0.700437
			-0.634308  0.762058  0.130080
			-0.505313  0.342637  0.791997
			-0.862147 -0.442858 -0.246129
			-0.847730 -0.319270  0.423580
			-0.557615 -0.405069  0.724558
			-0.637459 -0.598751 -0.484916
			-0.361615 -0.535886 -0.762929
			-0.133630 -0.652197  0.746178
			 0.171069 -0.674443  0.718235
			-0.629390 -0.236008  0.740384
			-0.486903 -0.234281  0.841450
			-0.445025 -0.492660  0.747822
			-0.569909 -0.775635  0.271282
			-0.388133 -0.792595 -0.470262
			 0.165249 -0.971204  0.171626
			 0.170678 -0.967746 -0.185303
			-0.042601 -0.972351  0.229604
			-0.069554 -0.922806 -0.378933
			 0.071385 -0.838464  0.540262
			 0.275390 -0.890944  0.361080
			 0.623353 -0.657996 -0.422459
			 0.560971 -0.126073 -0.818179
			 0.432441 -0.282113 -0.856392
			 0.238002 -0.273281 -0.932026
			-0.131094 -0.181175 -0.974674
			-0.769722 -0.385874 -0.508556
			-0.981272  0.074660  0.177568
			-0.418906 -0.783823 -0.458409
			-0.605701 -0.767033 -0.211628
			-0.426410 -0.904520 -0.004301
			-0.164714 -0.827014 -0.537510
			-0.092421 -0.994825  0.042214
			-0.860731 -0.470662  0.193955
			-0.553066 -0.561434  0.615556
			-0.373460 -0.687907  0.622344
			-0.284494 -0.697075  0.658141
			-0.051092 -0.975455 -0.214192
			-0.114000 -0.863752  0.490853
			 0.148059 -0.985985  0.076890
			 0.409762 -0.459286 -0.788132
			 0.031087 -0.471463 -0.881338
			-0.519429 -0.630680 -0.576572
			-0.710903 -0.702470 -0.033951
			-0.249898 -0.920025 -0.301837
			-0.519729 -0.807177  0.279903
			-0.217718 -0.969229  0.114864
			-0.024340 -0.900412 -0.434357
			-0.382915 -0.901852 -0.200099
		</DataArray>
	</PointData>
	<Points>
		<DataArray type="Float32" NumberOfComponents="3" format="ascii">
			-0.002485  0.016259 -0.015792
			 0.002267  0.007737 -0.020323
			-0.008353  0.013258 -0.017409
			 0.005013  0.016179 -0.015421
			-0.001938  0.018885 -0.012364
			 0.010107  0.016044 -0.012061
			-0.011733  0.006253 -0.019245
			-0.008749 -0.002138 -0.021890
			 0.000010 -0.006513 -0.022550
			 0.008418 -0.000804 -0.022012
			 0.012835  0.004267 -0.017871
			 0.011158  0.012518 -0.015341
			-0.008158  0.016469 -0.013682
			-0.014097  0.010306 -0.015535
			 0.016484  0.010525 -0.011627
			-0.002308  0.021305 -0.006500
			 0.006930  0.019753 -0.006998
			 0.014310  0.016141 -0.006253
			-0.015400  0.001654 -0.017961
			-0.010470 -0.005477 -0.020269
			-0.000161 -0.009490 -0.021591
			 0.008717 -0.006668 -0.021171
			 0.014470 -0.002996 -0.018068
			 0.017318  0.002055 -0.015207
			-0.009431  0.019150 -0.007913
			-0.015531  0.013876 -0.009880
			-0.018798  0.005641 -0.012959
			 0.019750  0.009812 -0.005479
			-0.003142  0.022331 -0.000786
			 0.002942  0.022217  0.000367
			 0.009514  0.020136  0.000860
			 0.016752  0.015302  0.001298
			-0.016558 -0.004469 -0.016487
			-0.009495 -0.010572 -0.019026
			 0.000788 -0.012375 -0.020179
			 0.009865 -0.010466 -0.018919
			 0.017219 -0.005776 -0.014684
			 0.021712  0.001481 -0.008411
			-0.010106  0.020215 -0.002173
			-0.016733  0.015443 -0.004041
			-0.021371  0.006567 -0.007219
			-0.020732 -0.002328 -0.011201
			 0.023186 -0.000307 -0.005230
			 0.021279  0.009285  0.000272
			-0.011544  0.019532  0.004240
			-0.004899  0.021668  0.004890
			 0.001573  0.021757  0.006411
			 0.007870  0.019973  0.007768
			 0.016054  0.013591  0.009179
			-0.015423 -0.010163 -0.014790
			-0.007474 -0.014195 -0.017158
			 0.002291 -0.016348 -0.017070
			 0.013029 -0.012810 -0.014730
			 0.019412 -0.008592 -0.010445
			-0.017672  0.014790  0.002346
			-0.022373  0.006494 -0.001388
			-0.022460 -0.003854 -0.005599
			-0.017314 -0.011841 -0.010588
			 0.023141 -0.004235  0.001017
			 0.021058  0.005807  0.007548
			-0.013445  0.016710  0.008832
			-0.019913  0.011076  0.005111
			-0.005972  0.019438  0.010707
			 0.001980  0.018852  0.012902
			 0.009327  0.015115  0.014814
			 0.014706  0.009681  0.015469
			-0.008936 -0.016038 -0.014580
			 0.002108 -0.018234 -0.015043
			 0.013393 -0.015687 -0.011030
			 0.020966 -0.010112 -0.005375
			-0.023301  0.001183  0.001627
			-0.021882 -0.007930 -0.003050
			-0.015668 -0.014510 -0.011009
			-0.006174 -0.017913 -0.013796
			 0.020997 -0.004771  0.009481
			 0.019198  0.001915  0.013645
			-0.006443  0.016768  0.014819
			-0.013328  0.014668  0.012641
			-0.019447  0.008811  0.009583
			-0.000481  0.015534  0.017741
			 0.004317  0.013490  0.018908
			 0.008703  0.008311  0.020050
			 0.014092 -0.000326  0.019032
			 0.005619 -0.019266 -0.012331
			 0.014739 -0.017320 -0.004273
			 0.019991 -0.012422  0.002254
			-0.023245  0.000619  0.005996
			-0.022616 -0.006988  0.001382
			-0.016372 -0.014129 -0.004684
			-0.007745 -0.017630 -0.008860
			 0.017246 -0.015463  0.005797
			 0.017002 -0.007284  0.014690
			-0.014142  0.010676  0.015528
			-0.006853  0.012157  0.018589
			-0.018719  0.003918  0.012125
			-0.020368 -0.003759  0.009983
			-0.000651  0.009952  0.021520
			 0.005654  0.005692  0.022054
			 0.008514 -0.001739  0.022061
			 0.011673 -0.009218  0.018047
			 0.000618 -0.019771 -0.008724
			 0.006686 -0.020452 -0.006604
			 0.013604 -0.018660 -0.000595
			-0.017821 -0.012360  0.002455
			-0.010661 -0.016631 -0.001888
			-0.003240 -0.019143 -0.002967
			 0.012267 -0.015560  0.012292
			-0.013258 -0.001421  0.016467
			-0.006526  0.003737  0.018110
			-0.017241 -0.009529  0.013278
			-0.015091 -0.016822  0.007396
			-0.000963  0.001430  0.020986
			 0.005191 -0.002065  0.023396
			 0.008210 -0.009288  0.020870
			 0.003401 -0.019521 -0.001047
			 0.009445 -0.018801  0.004231
			-0.009402 -0.020722  0.004148
			-0.000243 -0.021797  0.005431
			 0.008817 -0.015097  0.016013
			-0.012344 -0.007434  0.025266
			-0.016792 -0.015301  0.021105
			-0.004982 -0.003153  0.027602
			-0.015739 -0.021299  0.014938
			-0.013535 -0.027330  0.011626
			 0.001984 -0.006429  0.030073
			 0.005033 -0.014067  0.029609
			 0.004745 -0.021320  0.027106
			 0.007000 -0.019473  0.010573
			-0.008431 -0.030151  0.009985
			-0.001414 -0.030849  0.013004
			 0.003590 -0.028037  0.022023
			-0.007116 -0.003903  0.034035
			-0.013007 -0.008966  0.030110
			-0.016950 -0.017191  0.025608
			-0.017874 -0.025184  0.021559
			-0.001184 -0.006004  0.037300
			-0.016132 -0.033301  0.014557
			-0.013513 -0.035736  0.011876
			 0.003743 -0.010372  0.038220
			 0.006122 -0.016497  0.038226
			 0.002471 -0.032059  0.030706
			 0.003644 -0.022498  0.035590
			-0.003690 -0.039036  0.015654
			 0.002085 -0.037969  0.021989
			-0.007985 -0.002618  0.040552
			-0.002429 -0.004001  0.042826
			-0.015659 -0.007174  0.037285
			-0.017491 -0.015230  0.036998
			-0.019361 -0.023764  0.031468
			-0.020722 -0.033184  0.023048
			 0.001913 -0.007581  0.045013
			-0.018872 -0.040204  0.017521
			-0.016848 -0.044566  0.012662
			 0.003070 -0.012640  0.045930
			 0.000569 -0.028499  0.038959
			 0.001374 -0.019469  0.043887
			 0.000989 -0.045425  0.023072
			 0.001274 -0.037578  0.032132
			-0.007933 -0.046195  0.016363
			-0.011426 -0.000723  0.045378
			-0.005572 -0.000975  0.049710
			-0.001700 -0.007206  0.051340
			-0.023433 -0.001858  0.034786
			-0.024874 -0.011090  0.038803
			-0.025779 -0.020496  0.037377
			-0.027161 -0.027566  0.031359
			-0.025479 -0.035304  0.027566
			-0.001146 -0.016672  0.050909
			-0.022926 -0.043275  0.020912
			-0.021497 -0.047650  0.016181
			-0.019536 -0.050507  0.009915
			-0.001981 -0.033257  0.044266
			-0.002531 -0.026081  0.047954
			 0.001424 -0.047581  0.032985
			-0.000447 -0.040271  0.038440
			-0.014325 -0.052510  0.015286
			-0.003440 -0.053634  0.020853
			 0.002122 -0.051316  0.026469
			-0.011591  0.000239  0.049971
			-0.004739 -0.009025  0.054484
			-0.003580 -0.019134  0.053367
			-0.023620  0.001334  0.036881
			-0.030479 -0.002425  0.031672
			-0.032360 -0.016638  0.034891
			-0.032541 -0.027432  0.032240
			-0.030797 -0.037747  0.030535
			-0.028090 -0.045295  0.023459
			-0.004648 -0.036635  0.048922
			-0.003984 -0.028974  0.053373
			-0.028187 -0.050334  0.013586
			-0.025042 -0.053680  0.008329
			-0.019335 -0.055888  0.009401
			 0.002156 -0.053877  0.031958
			-0.000140 -0.049972  0.038798
			-0.002646 -0.043430  0.044675
			 0.002109 -0.056661  0.025747
			-0.016134 -0.057091  0.015675
			-0.009042 -0.058151  0.019710
			-0.003205 -0.058627  0.021478
			-0.015167 -0.001662  0.053526
			-0.026389  0.000910  0.043069
			-0.010708 -0.010851  0.057218
			-0.008875 -0.020097  0.058543
			-0.034061 -0.001313  0.035545
			-0.036018 -0.017569  0.036803
			-0.036939 -0.026980  0.037029
			-0.035567 -0.036397  0.036969
			-0.028678 -0.047363  0.031117
			-0.030119 -0.053812  0.016796
			-0.008726 -0.038108  0.053770
			-0.007360 -0.030235  0.058452
			-0.026958 -0.057008  0.010057
			-0.020557 -0.059633  0.010487
			-0.015958 -0.061216  0.018147
			 0.002924 -0.059957  0.033868
			-0.000767 -0.054513  0.042745
			-0.006313 -0.048837  0.048947
			 0.003685 -0.062765  0.027737
			-0.008757 -0.063822  0.020503
			-0.000899 -0.064418  0.022435
			-0.018208 -0.006175  0.055385
			-0.031239 -0.003890  0.048469
			-0.035469 -0.007487  0.041888
			-0.013727 -0.018260  0.061969
			-0.036412 -0.015589  0.043232
			-0.036057 -0.026457  0.045119
			-0.033834 -0.035118  0.044942
			-0.029490 -0.051900  0.039298
			-0.025523 -0.058950  0.028030
			-0.024148 -0.062041  0.035564
			-0.029251 -0.060613  0.017851
			-0.013466 -0.039589  0.055445
			-0.011038 -0.029542  0.061917
			-0.025443 -0.062217  0.011928
			-0.016938 -0.066165  0.020558
			 0.003558 -0.067240  0.037632
			 0.004376 -0.069235  0.027684
			-0.001875 -0.065544  0.045241
			-0.011372 -0.047986  0.053040
			-0.006027 -0.064421  0.049750
			-0.002154 -0.070349  0.022214
			-0.010523 -0.068838  0.021205
			-0.020262 -0.019043  0.060748
			-0.029105 -0.017457  0.056437
			-0.033262 -0.019472  0.051211
			-0.018167 -0.032425  0.060316
			-0.031920 -0.028846  0.052585
			-0.024391 -0.063286  0.043106
			-0.026538 -0.055161  0.046097
			-0.029181 -0.041940  0.049375
			-0.022525 -0.066173  0.025092
			-0.020076 -0.073363  0.037020
			-0.019857 -0.043035  0.053856
			 0.007852 -0.083425  0.035657
			 0.007774 -0.083415  0.028230
			 0.001670 -0.084601  0.023175
			-0.018056 -0.053199  0.051492
			-0.012102 -0.065376  0.051444
			-0.000264 -0.083380  0.045736
			-0.007277 -0.085267  0.023971
			-0.010418 -0.076516  0.023952
			-0.025473 -0.031527  0.057772
			-0.019742 -0.064448  0.048286
			-0.013514 -0.088480  0.031602
			-0.014593 -0.086316  0.046468
			 0.010395 -0.114751  0.042287
			 0.013557 -0.107318  0.030510
			 0.007304 -0.113000  0.021120
			-0.008417 -0.085464  0.050573
			-0.001975 -0.115539  0.048600
			-0.005871 -0.114810  0.028131
			-0.007908 -0.117051  0.045137
			 0.016288 -0.145738  0.042213
			 0.021585 -0.143279  0.030989
			 0.013413 -0.143481  0.018024
			 0.002221 -0.146605  0.024984
			 0.006723 -0.147830  0.044937
			-0.000053 -0.149090  0.039202
			 0.022357 -0.178337  0.039752
			 0.026764 -0.175448  0.029277
			 0.018745 -0.175082  0.016061
			 0.007044 -0.175149  0.022582
			 0.005728 -0.177552  0.034434
			 0.011849 -0.176914  0.041937
			 0.025319 -0.206289  0.036959
			 0.029398 -0.204312  0.022907
			 0.018726 -0.204504  0.014052
			 0.010333 -0.206775  0.019873
			 0.009502 -0.208074  0.031534
			 0.015473 -0.207935  0.038652
			 0.028845 -0.241638  0.032493
			 0.032097 -0.239811  0.019746
			 0.022526 -0.238842  0.010251
			 0.012784 -0.239322  0.015362
			 0.011708 -0.242395  0.027188
			 0.019081 -0.242527  0.034715
			 0.031172 -0.274507  0.027139
			 0.033931 -0.272860  0.016311
			 0.024257 -0.270705  0.006213
			 0.013304 -0.272426  0.011678
			 0.012871 -0.275030  0.024870
			 0.020614 -0.276345  0.030349
			 0.020902 -0.307010  0.026991
			 0.028519 -0.306666  0.025291
			 0.033406 -0.305003  0.010980
			 0.026736 -0.303639  0.001798
			 0.017225 -0.303517  0.004273
			 0.011122 -0.304828  0.012867
			 0.013097 -0.306874  0.023604
			 0.018972 -0.340119  0.024427
			 0.029801 -0.340453  0.021958
			 0.033036 -0.341126  0.007879
			 0.025037 -0.338380 -0.004078
			 0.015455 -0.336998 -0.001503
			 0.010596 -0.337751  0.008556
			 0.010032 -0.339151  0.020233
			 0.016284 -0.367009  0.024252
			 0.030513 -0.369852  0.018576
			 0.029980 -0.368150  0.002282
			 0.025348 -0.365105 -0.008219
			 0.014551 -0.362330 -0.010076
			 0.008473 -0.367519  0.006193
			 0.007022 -0.366640  0.020488
			 0.002655 -0.379981  0.023009
			 0.015523 -0.381394  0.025617
			 0.029925 -0.386391  0.020785
			 0.029547 -0.384766 -0.000447
			 0.022030 -0.377881 -0.013768
			 0.012115 -0.375266 -0.018196
			 0.008116 -0.377884 -0.009247
			 0.006616 -0.380674  0.003266
			-0.002897 -0.386977  0.028552
			 0.011980 -0.394159  0.031420
			-0.000454 -0.386982  0.014488
			 0.022959 -0.397253  0.028606
			 0.035306 -0.397072  0.021105
			 0.032968 -0.395633  0.008448
			 0.031145 -0.395746 -0.001877
			 0.027072 -0.390989 -0.013137
			 0.020784 -0.387953 -0.020689
			 0.006791 -0.387902 -0.033406
			 0.011160 -0.382117 -0.023459
			 0.004383 -0.386023 -0.013469
			 0.003587 -0.387849  0.000222
			-0.009434 -0.391673  0.029127
			-0.009795 -0.390173  0.014384
			 0.002353 -0.398568  0.036067
			 0.010398 -0.402182  0.034107
			-0.006731 -0.392187  0.009106
			 0.021525 -0.404413  0.029318
			 0.035446 -0.405787  0.021325
			 0.032663 -0.405177  0.008789
			 0.030062 -0.406264 -0.000232
			 0.032818 -0.405157 -0.007829
			 0.025956 -0.399818 -0.018001
			 0.019136 -0.394624 -0.027519
			 0.017446 -0.402156 -0.030315
			 0.011730 -0.397800 -0.036877
			 0.002937 -0.393959 -0.037526
			-0.000852 -0.391272 -0.025995
			-0.001801 -0.392515 -0.016571
			-0.002039 -0.394480 -0.001938
			-0.016769 -0.397147  0.027677
			-0.009767 -0.402873  0.035207
			-0.017997 -0.395692  0.022044
			-0.011068 -0.400730  0.006348
			-0.016787 -0.397566  0.012051
			-0.002143 -0.406302  0.037033
			 0.007871 -0.408459  0.034121
			-0.002281 -0.400084 -0.001555
			 0.017481 -0.411851  0.029677
			 0.024589 -0.413262  0.027714
			 0.031195 -0.414066  0.022521
			 0.029754 -0.413497  0.010670
			 0.025460 -0.412837  0.000033
			 0.029709 -0.413635 -0.006108
			 0.033345 -0.414184 -0.010227
			 0.029794 -0.410377 -0.016316
			 0.024650 -0.407569 -0.021375
			 0.015140 -0.409293 -0.030919
			 0.006830 -0.402541 -0.038298
			-0.007303 -0.397547 -0.036054
			-0.015521 -0.394175 -0.027941
			-0.003647 -0.393526 -0.028425
			-0.010118 -0.392991 -0.018940
			-0.008083 -0.398395 -0.013016
			-0.022408 -0.404588  0.023297
			-0.021165 -0.406397  0.029793
			-0.012553 -0.410420  0.030597
			-0.020512 -0.405620  0.013998
			-0.002882 -0.408422  0.006231
			-0.016366 -0.408881  0.008787
			-0.006449 -0.413673  0.032330
			 0.003243 -0.416680  0.031912
			-0.001044 -0.408861 -0.009405
			 0.004058 -0.410535 -0.001843
			 0.016771 -0.417675  0.028481
			 0.023161 -0.421217  0.025633
			 0.022884 -0.421138  0.014379
			 0.019261 -0.417790  0.004385
			 0.020794 -0.418748 -0.004095
			 0.029071 -0.420928 -0.011581
			 0.027465 -0.417050 -0.018789
			 0.021598 -0.413145 -0.022962
			 0.012713 -0.414202 -0.031252
			 0.002472 -0.411800 -0.036440
			-0.007632 -0.409205 -0.036730
			-0.020658 -0.408592 -0.033736
			-0.017667 -0.395899 -0.020933
			-0.016816 -0.403420 -0.013198
			-0.021820 -0.410716  0.019655
			-0.021244 -0.413129  0.028080
			-0.015779 -0.417373  0.031837
			-0.014973 -0.415510  0.012463
			-0.005442 -0.416331  0.007583
			-0.007523 -0.422437  0.032296
			 0.005837 -0.423079  0.029917
			-0.018287 -0.409922 -0.014403
			-0.013221 -0.415616 -0.014291
			-0.004487 -0.422012 -0.013927
			 0.007255 -0.416320 -0.001125
			 0.007211 -0.417681  0.005644
			 0.013777 -0.423537  0.025725
			 0.014433 -0.424549  0.017703
			 0.013143 -0.418346 -0.000209
			 0.012486 -0.421127  0.009177
			 0.014155 -0.421520 -0.005391
			 0.019347 -0.425500 -0.012975
			 0.022154 -0.425019 -0.022274
			 0.017173 -0.418753 -0.025937
			 0.009566 -0.420713 -0.029919
			 0.003233 -0.417783 -0.034554
			-0.007621 -0.415450 -0.036092
			-0.018097 -0.414535 -0.033884
			-0.022322 -0.403616 -0.021101
			-0.009423 -0.419038  0.012840
			-0.014324 -0.419420  0.018578
			-0.011563 -0.421864  0.024560
			 0.001318 -0.420799  0.010887